ATOMS
        Ne   14.800000   14.800000   14.800000
BEGIN_BLOCK_DATAGRID_3D
units: coords = b, function = sqrt(b^-3)
BEGIN_DATAGRID_3D_function
     75     75     75
0.0 0.0 0.0
   29.600000    0.000000    0.000000
    0.000000   29.600000    0.000000
    0.000000    0.000000   29.600000
        0.400000000000000
        0.500000000000000
        0.600000000000000
        0.000000000000000
        0.000000000000000
        0.000000000000000
        0.000000000000000
        0.000000000000000
        0.000000000000000
        0.000000000000000
        0.000000000000000
        0.000000000000000
        0.000000000000000
        0.000000000000000
        0.000000000000000
        0.000000000000000
        0.000000000000000
        0.000000000000000
        0.300000000000000
        0.200000000000000
        0.100000000000000
END_DATAGRID_3D
END_BLOCK_DATAGRID_3D
